 Gaussian 09, Revision C.01,
 Gaussian 09:  EM64L-G09RevC.01 23-Sep-2011

 -------------------------
 #p B3LYP/6-31G(d) scf=xqc
 -------------------------

 (Enter /apps/gaussian/g09_c01/g09/l101.exe)
 ------------------------------
 Gaussian input prepared by ASE
 ------------------------------
 Charge =  0 Multiplicity = 1

                         Standard orientation:
 ---------------------------------------------------------------------
 Center     Atomic      Atomic             Coordinates (Angstroms)
 Number     Number       Type             X           Y           Z
 ---------------------------------------------------------------------
      1          6           0       -2.501282    2.814146   -0.003607
      2          6           0       -3.741277    2.072146   -0.001258
      3          6           0       -3.725188    0.729508    0.001201
      4          6           0       -2.442187   -0.004939    0.001044
      5          6           0       -2.434913   -1.404371    0.001997
      6          6           0        0.000099    2.829516    0.000080
      7          6           0       -1.204315    2.125004   -0.000977
      8          6           0       -1.222311    0.711185    0.000059
      9          6           0       -0.000017    0.003752    0.000002
     10          6           0       -0.000035   -1.411549   -0.000001
     11          6           0       -1.226130   -2.117863    0.001190
     12          6           0       -1.208284   -3.520240    0.001465
     13          6           0       -0.000131   -4.216133    0.000073
     14          6           0        2.501442    2.813995    0.003727
     15          6           0        1.204451    2.124925    0.001067
     16          6           0        1.222358    0.711121   -0.000059
     17          6           0        2.442219   -0.005086   -0.001125
     18          6           0        2.434816   -1.404538   -0.002071
     19          6           0        1.225994   -2.117938   -0.001191
     20          6           0        1.208052   -3.520314   -0.001383
     21          6           0        3.741453    2.071913    0.001153
     22          6           0        3.725188    0.729279   -0.001392
     23          1           0        3.378393   -1.945880   -0.003192
     24          1           0        2.138695   -4.083655   -0.002526
     25          1           0        4.674942    2.624425    0.001610
     26          1           0        4.648797    0.161138   -0.003487
     27          1           0       -4.674791    2.624734   -0.001805
     28          1           0       -4.648777    0.161450    0.003108
     29          1           0       -3.378515   -1.945667    0.003078
     30          1           0       -2.138957   -4.083518    0.002635
     31          1           0       -0.000177   -5.303342    0.000109
     32          1           0       -2.532382    3.896938   -0.010898
     33          1           0        0.000124    3.915484    0.000119
     34          1           0        2.532632    3.896770    0.011271
 ---------------------------------------------------------------------

 SCF Done:  E(RB3LYP) =  -845.489943998     A.U. after   65 cycles
 SCF Done:  E(RB3LYP) =  -845.556538846     a.u. after   23 cycles

 The electronic state is 1-A.
 Alpha  occ. eigenvalues --  -10.22947 -10.22946 -10.21718 -10.21383 -10.21382
 Alpha  occ. eigenvalues --  -10.21324 -10.21323 -10.20432 -10.20431 -10.20017
 Alpha  occ. eigenvalues --  -10.20009 -10.19871 -10.19599 -10.18584 -10.18584
 Alpha  occ. eigenvalues --  -10.17956 -10.17955 -10.17635 -10.17633 -10.17258
 Alpha  occ. eigenvalues --  -10.17256 -10.14815  -0.91010  -0.86900  -0.85840
 Alpha  occ. eigenvalues --   -0.81038  -0.80991  -0.79739  -0.75028  -0.74516
 Alpha  occ. eigenvalues --   -0.73819  -0.73508  -0.67543  -0.65201  -0.63802
 Alpha  occ. eigenvalues --   -0.63225  -0.62495  -0.59093  -0.55254  -0.54563
 Alpha  occ. eigenvalues --   -0.53650  -0.53361  -0.51835  -0.47938  -0.47705
 Alpha  occ. eigenvalues --   -0.46656  -0.45649  -0.44947  -0.44694  -0.43394
 Alpha  occ. eigenvalues --   -0.42765  -0.42142  -0.41236  -0.40107  -0.38913
 Alpha  occ. eigenvalues --   -0.38362  -0.38043  -0.37812  -0.37137  -0.36713
 Alpha  occ. eigenvalues --   -0.35094  -0.34908  -0.31897  -0.31616  -0.31390
 Alpha  occ. eigenvalues --   -0.30727  -0.30536  -0.25008  -0.24886  -0.23820
 Alpha  occ. eigenvalues --   -0.23787  -0.12583
 Alpha virt. eigenvalues --   -0.12549  -0.02544  -0.01648  -0.01151   0.00813
 Alpha virt. eigenvalues --    0.06678   0.06944   0.07984   0.08471   0.10838
 Alpha virt. eigenvalues --    0.10896   0.12435   0.13086   0.14868   0.15354

 Mulliken atomic charges:
              1
     1  C   -0.244207
     2  C   -0.113615
     3  C   -0.211488
     4  C    0.147562
     5  C   -0.302949
     6  C   -0.352936
     7  C    0.167317
     8  C    0.030618
     9  C   -0.005581
    10  C    0.004692
    11  C    0.180611
    12  C   -0.196236
    13  C   -0.133058
    14  C   -0.244251
    15  C    0.167339
    16  C    0.030573
    17  C    0.147638
    18  C   -0.302989
    19  C    0.180648
    20  C   -0.196234
    21  C   -0.113604
    22  C   -0.211533
    23  H    0.143874
    24  H    0.152855
    25  H    0.125415
    26  H    0.114576
    27  H    0.125415
    28  H    0.114593
    29  H    0.143884
    30  H    0.152852
    31  H    0.145655
    32  H    0.121239
    33  H    0.110101
    34  H    0.121223
 Sum of Mulliken atomic charges =   0.00000

 Dipole moment (field-independent basis, Debye):
    X=             -0.0014    Y=             -4.7537    Z=              0.0000  Tot=              4.7537
 Quadrupole moment (field-independent basis, Debye-Ang):
   XX=           -112.2553   YY=           -104.1380   ZZ=           -130.8454
   XY=             -0.0005   XZ=             -0.0010   YZ=              0.0003

 Normal termination of Gaussian 09 at Sun Jan 27 14:32:34 2013.
